 Q-Chem 4.3 (beta), Q-Chem, Inc., Pleasanton, CA (2015)
 Q-Chem 4.3.0 for Mac (Intel) OS X

User input:
--------------------------------------------------------------
$molecule
0 1
O         -5.35740        2.09256        0.00000
H         -4.38740        2.09256        0.00000
H         -5.68073        1.66625       -0.80909
$end

$rem
jobtype sp
basis 6-311++G(3df,3pd)
exchange omegab97x-d
$end
--------------------------------------------------------------

             Standard Nuclear Orientation (Angstroms)
    I     Atom           X                Y                Z
 ----------------------------------------------------------------
    1      O      -5.3574000000     2.0925600000     0.0000000000
    2      H      -4.3874000000     2.0925600000     0.0000000000
    3      H      -5.6807300000     1.6662500000    -0.8090900000
 ----------------------------------------------------------------

    7     -76.4374165691      1.91E-06 Convergence criterion met
 Total energy in the final basis set = -76.4374165691

                    Orbital Energies (a.u.)
 --------------------------------------------------------------

 Alpha MOs
 -- Occupied --
-19.255  -1.111  -0.629  -0.474  -0.406

          Ground-State Mulliken Net Atomic Charges

     Atom                 Charge (a.u.)
  ----------------------------------------
      1 O                    -0.877028
      2 H                     0.438859
      3 H                     0.438169
  ----------------------------------------
  Sum of atomic charges =    -0.000000

                    Cartesian Multipole Moments
 -----------------------------------------------------------------
    Charge (ESU x 10^10)
                -0.0000
    Dipole Moment (Debye)
         X       1.0668      Y      -0.7036      Z      -1.3350
       Tot       1.8481
    Quadrupole Moments (Debye-Ang)
        XX     -16.2056     XY       6.4391     YY     -10.1850
        XZ       7.9823     YZ      -1.8436     ZZ      -5.9382

 Total job time:  12.24s(wall), 12.19s(cpu)
        *  Thank you very much for using Q-Chem.  Have a nice day.  *
