 Q-Chem 4.3 (beta), Q-Chem, Inc., Pleasanton, CA (2015)
 Q-Chem 4.3.0 for Mac (Intel) OS X

User input:
--------------------------------------------------------------
$molecule
0 1
O         -5.35740        2.09256        0.00000
H         -4.38740        2.09256        0.00000
H         -5.68073        1.66625       -0.80909
$end

$rem
jobtype opt
basis 6-311++G(3df,3pd)
exchange omegab97x-d
$end
--------------------------------------------------------------

   10     -76.4374166304      6.24E-09 Convergence criterion met
 Total energy in the final basis set = -76.4374166304
    9     -76.4382841896      2.74E-09 Convergence criterion met
 Total energy in the final basis set = -76.4382841896
    8     -76.4382926212      2.19E-09 Convergence criterion met
 Total energy in the final basis set = -76.4382926212

             Standard Nuclear Orientation (Angstroms)
    I     Atom           X                Y                Z
 ----------------------------------------------------------------
    1      O      -5.3657302049     2.0980139365     0.0103509781
    2      H      -4.4095197026     2.0811591174    -0.0216376348
    3      H      -5.6502800924     1.6721969461    -0.7978033433
 ----------------------------------------------------------------

    6     -76.4382926654      8.48E-09 Convergence criterion met
 Total energy in the final basis set = -76.4382926654
 Final energy is   -76.438292665403324
 **  OPTIMIZATION CONVERGED  **

                    Orbital Energies (a.u.)
 --------------------------------------------------------------

 Alpha MOs
 -- Occupied --
-19.254  -1.120  -0.627  -0.484  -0.408

          Ground-State Mulliken Net Atomic Charges

     Atom                 Charge (a.u.)
  ----------------------------------------
      1 O                    -0.879184
      2 H                     0.439859
      3 H                     0.439324
  ----------------------------------------
  Sum of atomic charges =     0.000000

                    Cartesian Multipole Moments
 -----------------------------------------------------------------
    Charge (ESU x 10^10)
                -0.0000
    Dipole Moment (Debye)
         X       1.1020      Y      -0.7265      Z      -1.3786
       Tot       1.9086
    Quadrupole Moments (Debye-Ang)
        XX     -16.6874     XY       6.5631     YY     -10.2492
        XZ       8.0781     YZ      -1.9491     ZZ      -5.9261

 Total job time:  79.36s(wall), 78.72s(cpu)
        *  Thank you very much for using Q-Chem.  Have a nice day.  *
